/*--------------------------------*- C++ -*----------------------------------*\
| =========                 |                                                 |
| \\      /  F ield         | OpenFOAM: The Open Source CFD Toolbox           |
|  \\    /   O peration     | Version:  v2012                                 |
|   \\  /    A nd           | Website:  www.openfoam.com                      |
|    \\/     M anipulation  |                                                 |
\*---------------------------------------------------------------------------*/
FoamFile
{
    version     2.0;
    format      ascii;
    class       volScalarField;
    object      p;
}
// * * * * * * * * * * * * * * * * * * * * * * * * * * * * * * * * * * * * * //

dimensions      [0 2 -2 0 0 0 0];

internalField   nonuniform List<scalar>
10720
(-17.636374
-17.630974
-17.615725
-17.587473
-17.545725
-17.48825
-17.412825
-17.318174
-17.20235
-17.063427
-16.89955
-16.7085
-16.487925
-16.235174
-15.947325
-15.621225
-15.25345
-14.840275
-14.377725
-13.861525
-13.28715
-12.6498995
-11.944625
-11.165826
-10.307358
-9.3619585
-8.321498
-7.17714
-5.919225
-4.5371428
-3.0192251
-1.3526398
0.4767578
2.484555
4.6878924
7.105537
9.757818
12.666624
15.853725
-17.633675
-17.622849
-17.60195
-17.566874
-17.51575
-17.44575
-17.3538
-17.238026
-17.097727
-16.932
-16.739851
-16.5206
-16.273026
-15.995426
-15.685875
-15.3419
-14.960575
-14.53855
-14.072025
-13.556701
-12.987751
-12.35975
-11.6666
-10.901599
-10.0576515
-9.127363
-8.102655
-6.9746504
-5.733602
-4.3688326
-2.8686075
-1.220025
0.591115
2.5804474
4.765165
7.164112
9.797777
12.688299
15.858125
-17.817575
-17.811401
-17.7939
-17.762049
-17.7156
-17.652124
-17.569725
-17.467474
-17.3435
-17.196125
-17.023676
-16.8239
-16.59455
-16.333052
-16.036474
-15.701651
-15.32515
-14.903299
-14.432125
-13.9074745
-13.324926
-12.679874
-11.9674
-11.182225
-10.318238
-9.367871
-8.322715
-7.173883
-5.911733
-4.52565
-3.0039802
-1.3338951
0.49876255
2.5095952
4.7157855
7.1361904
9.791254
12.7031
15.892749
-17.814476
-17.802124
-17.77805
-17.737825
-17.679676
-17.600399
-17.497074
-17.3688
-17.215801
-17.0376
-16.833725
-16.604
-16.347275
-16.061775
-15.745451
-15.395675
-15.009325
-14.582899
-14.11245
-13.5935
-13.021026
-12.3894
-11.69235
-10.922975
-10.074365
-9.13949
-8.11038
-6.978163
-5.7331
-4.36452
-2.8607023
-1.2087497
0.6055453
2.5978298
4.7853374
7.1869993
9.823423
12.716976
15.889324
-18.00875
-18.001749
-17.9819
-17.94625
-17.894825
-17.824999
-17.735224
-17.624975
-17.4924
-17.3361
-17.154602
-16.94565
-16.707073
-16.43635
-16.13055
-15.786501
-15.400775
-14.969774
-14.489551
-13.955976
-13.364776
-12.711476
-11.9914
-11.199501
-10.329695
-9.374107
-8.324
-7.170448
-5.903827
-4.513525
-2.9878976
-1.3141181
0.5219767
2.5360124
4.7452126
7.168528
9.826522
12.7416
15.933926
-18.00525
-17.991274
-17.96385
-17.918201
-17.852627
-17.763575
-17.64825
-17.506775
-17.340376
-17.149
-16.93275
-16.692
-16.425627
-16.131775
-15.8083
-15.4524
-15.060751
-14.6297
-14.155125
-13.632324
-13.0561
-12.420675
-11.7195
-10.945524
-10.092025
-9.1522875
-8.11853
-6.981868
-5.73257
-4.35997
-2.8523626
-1.1968545
0.6207656
2.6161652
4.8066196
7.211149
9.850487
12.747225
15.922249
-18.210424
-18.202599
-18.18025
-18.1406
-18.083927
-18.007374
-17.909851
-17.791176
-17.6495
-17.483776
-17.292727
-17.0741
-16.8258
-16.545324
-16.229776
-15.876001
-15.480574
-15.0399
-14.550125
-14.007151
-13.406799
-12.744825
-12.016726
-11.217725
-10.341795
-9.380688
-8.325353
-7.1668224
-5.895487
-4.5007324
-2.9709299
-1.2932538
0.5464686
2.56388
4.776255
7.202643
9.863742
12.782202
15.977325
-18.206501
-18.19085
-18.159876
-18.108475
-18.035051
-17.9357
-17.807701
-17.652325
-17.471825
-17.266525
-17.037226
-16.784876
-16.5083
-16.2056
-15.874599
-15.512226
-15.114975
-14.679074
-14.20015
-13.673275
-13.0931
-12.453699
-11.748175
-10.969301
-10.110626
-9.16579
-8.1271305
-6.985778
-5.73201
-4.35517
-2.843565
-1.1843051
0.6368226
2.6355076
4.8290753
7.236629
9.87903
12.77915
15.957
-18.423199
-18.414474
-18.389475
-18.345602
-18.283401
-18.199774
-18.094076
-17.966501
-17.81525
-17.639626
-17.438475
-17.2096
-16.95105
-16.6603
-16.33445
-15.9704
-15.564724
-15.113875
-14.614
-14.0611
-13.451123
-12.780025
-12.043476
-11.236975
-10.354575
-9.38763
-8.32678
-7.162995
-5.886685
-4.4872375
-2.9530296
-1.271241
0.5723065
2.59328
4.8090076
7.238635
9.903018
12.82505
16.02315
-18.4188
-18.401377
-18.366652
-18.3092
-18.227524
-18.1173
-17.97595
-17.8059
-17.610474
-17.3905
-17.147425
-16.882824
-16.595524
-16.283474
-15.944525
-15.575351
-15.172199
-14.73115
-14.247624
-13.716499
-13.132175
-12.488525
-11.7784
-10.994375
-10.130242
-9.18003
-8.1362
-6.9899035
-5.7314196
-4.3501077
-2.8342848
-1.1710654
0.653767
2.6559174
4.8527627
7.2635074
9.909138
12.812825
15.993651
-18.647675
-18.638
-18.61025
-18.561901
-18.493826
-18.40275
-18.288425
-18.151451
-17.990124
-17.804049
-17.592249
-17.35255
-17.083174
-16.781626
-16.444899
-16.07
-15.653525
-15.191926
-14.681401
-14.11805
-13.497925
-12.81715
-12.071674
-11.257275
-10.36805
-9.3949585
-8.328287
-7.1589575
-5.8773975
-4.473
-2.9341474
-1.2480185
0.5995641
2.6242976
4.8435626
7.2766066
9.9444275
12.870225
16.071474
-18.642801
-18.623499
-18.584824
-18.520975
-18.430574
-18.308874
-18.15345
-17.967901
-17.756725
-17.5213
-17.2637
-16.98615
-16.687525
-16.365625
-16.018276
-15.641951
-15.232599
-14.786099
-14.297701
-13.762074
-13.173401
-12.525275
-11.810275
-11.020849
-10.150972
-9.195055
-8.14577
-6.9942555
-5.7308006
-4.344765
-2.8244898
-1.1570964
0.6716435
2.6774502
4.877753
7.291865
9.940905
12.848326
16.032276
-18.884499
-18.873825
-18.84315
-18.790102
-18.715849
-18.616901
-18.493475
-18.346577
-18.1746
-17.977499
-17.754475
-17.503376
-17.222574
-16.9096
-16.561426
-16.175102
-15.747225
-15.27425
-14.752501
-14.17815
-13.547301
-12.8563
-12.101425
-11.278701
-10.382258
-9.402688
-8.329878
-7.1547
-5.8676023
-4.4579773
-2.914225
-1.22352
0.6283225
2.6570199
4.8800154
7.31667
9.98813
12.9179
16.12245
-18.879124
-18.85785
-18.815023
-18.744427
-18.644802
-18.510977
-18.340702
-18.138824
-17.91105
-17.659302
-17.386375
-17.095177
-16.784576
-16.4523
-16.096127
-15.712226
-15.296299
-14.844074
-14.350552
-13.81015
-13.216875
-12.564051
-11.843925
-11.048777
-10.172817
-9.210908
-8.155868
-6.9988446
-5.7301407
-4.3391247
-2.8141549
-1.142358
0.69049954
2.7001648
4.90412
7.321782
9.974422
12.8858
16.073051
-19.134348
-19.122625
-19.08885
-19.03085
-18.9501
-18.842825
-18.709776
-18.552423
-18.3692
-18.160452
-17.9256
-17.6625
-17.36965
-17.0446
-16.684351
-16.285952
-15.846025
-15.361101
-14.827524
-14.241526
-13.599376
-12.897625
-12.132825
-11.3013
-10.397238
-9.41084
-8.331554
-7.150207
-5.85727
-4.4421325
-2.8932052
-1.197672
0.65866303
2.6915448
4.918475
7.3589354
10.034231
12.9682
16.176249
-19.128426
-19.105074
-19.057875
-18.98015
-18.870798
-18.724201
-18.538275
-18.319174
-18.073875
-17.804901
-17.5158
-17.210201
-16.886974
-16.543774
-16.178274
-15.78635
-15.3635
-14.90525
-14.406326
-13.8609
-13.262751
-12.60495
-11.879425
-11.078226
-10.195855
-9.2276325
-8.16652
-7.0036874
-5.7294455
-4.3331776
-2.8032527
-1.1268083
0.7103918
2.7241275
4.931935
7.3533444
10.009788
12.92535
16.116076
-19.397924
-19.3851
-19.348076
-19.284826
-19.197224
-19.0812
-18.938
-18.769623
-18.574524
-18.353476
-18.106152
-17.830376
-17.5248
-17.187025
-16.814026
-16.4029
-15.9503
-15.452776
-14.906699
-14.308376
-13.654301
-12.941225
-12.165926
-11.325126
-10.413058
-9.419439
-8.333323
-7.145465
-5.8463674
-4.4254174
-2.8710299
-1.1704016
0.690671
2.7279675
4.95905
7.403523
10.082873
13.0212755
16.233025
-19.391426
-19.365875
-19.314049
-19.228827
-19.109222
-18.94915
-18.7467
-18.5094
-18.245626
-17.9585
-17.65235
-17.33155
-16.995
-16.640274
-16.264923
-15.864525
-15.434401
-14.9698
-14.465151
-13.914425
-13.311151
-12.6481
-11.916875
-11.1093235
-10.220188
-9.245275
-8.177757
-7.008798
-5.7287126
-4.326905
-2.791755
-1.1104065
0.731381
2.74941
4.96128
7.3866444
10.047098
12.967051
16.16145
-19.675999
-19.662024
-19.621576
-19.552774
-19.457924
-19.332674
-19.178799
-18.998775
-18.791151
-18.55715
-18.296627
-18.007477
-17.6885
-17.337275
-16.950825
-16.5263
-16.060326
-15.549475
-14.990199
-14.378926
-13.712252
-12.987201
-12.20085
-11.350275
-10.42976
-9.428516
-8.33519
-7.1404657
-5.834865
-4.407778
-2.8476326
-1.1416311
0.7244414
2.7663922
5.001855
7.4505653
10.134195
13.077275
16.292925
-19.668901
-19.641026
-19.5843
-19.491175
-19.360798
-19.1865
-18.966576
-18.710075
-18.426825
-18.120525
-17.796375
-17.459576
-17.108974
-16.74205
-16.356298
-15.947
-15.509201
-15.0379
-14.5272255
-13.9709
-13.362201
-12.6936
-11.956375
-11.142124
-10.245845
-9.263887
-8.189612
-7.0141897
-5.72794
-4.320285
-2.7796252
-1.0931038
0.7535237
2.7760823
4.99224
7.4217744
10.086451
13.01105
16.209349
-19.969374
-19.954174
-19.9101
-19.835474
-19.732975
-19.597975
-19.4328
-19.240475
-19.019674
-18.772024
-18.497576
-18.194302
-17.861176
-17.495775
-17.09515
-16.656475
-16.176374
-15.651474
-15.0782995
-14.453376
-13.7734
-13.0357
-12.2376995
-11.3768
-10.447362
-9.438087
-8.33716
-7.1351924
-5.822732
-4.389168
-2.8229501
-1.1112808
0.76006925
2.8069324
5.047015
7.5001945
10.18832
13.136326
16.356102
-19.96165
-19.931349
-19.869448
-19.76795
-19.6262
-19.436901
-19.19855
-18.9218
-18.617973
-18.29145
-17.948324
-17.59465
-17.229225
-16.849424
-16.452724
-16.03405
-15.588125
-15.109725
-14.592699
-14.030475
-13.41605
-12.741626
-11.998051
-11.176701
-10.27291
-9.283528
-8.202123
-7.019877
-5.727125
-4.3133
-2.7668226
-1.0748463
0.7768837
2.8042226
5.024903
7.4588346
10.127975
13.057475
16.25985
-20.2789
-20.2624
-20.214474
-20.1337
-20.023151
-19.877876
-19.700775
-19.495474
-19.260775
-18.998726
-18.7096
-18.391426
-18.04335
-17.663
-17.247425
-16.793825
-16.298826
-15.7591
-15.171249
-14.531899
-13.837926
-13.086899
-12.2766
-11.404799
-10.465935
-9.448185
-8.339234
-7.129625
-5.80993
-4.3695374
-2.7969124
-1.0792607
0.7976544
2.8497024
5.094663
7.5525546
10.24542
13.198625
16.42275
-20.2705
-20.237623
-20.170275
-20.05995
-19.906176
-19.701075
-19.443302
-19.145176
-18.819649
-18.4718
-18.10865
-17.737123
-17.356075
-16.962725
-16.554476
-16.1259
-15.6714
-15.1855
-14.661749
-14.093299
-13.472874
-12.792325
-12.042025
-11.213176
-10.301464
-9.304248
-8.215318
-7.025875
-5.7262673
-4.305935
-2.7533176
-1.055584
0.80153096
2.8339128
5.05936
7.497932
10.17178
13.10645
16.313124
-20.60545
-20.587574
-20.5356
-20.448324
-20.329275
-20.173151
-19.9835
-19.76455
-19.51515
-19.237875
-18.933275
-18.5994
-18.235577
-17.83945
-17.4081
-16.93875
-16.428024
-15.87265
-15.2693
-14.614725
-13.905975
-13.1409
-12.317625
-11.434324
-10.485515
-9.458829
-8.341425
-7.1237526
-5.7964225
-4.3488274
-2.7694426
-1.0454782
0.8373068
2.8948226
5.1449275
7.6077924
10.305673
13.264349
16.49305
-20.596325
-20.560726
-20.48765
-20.368025
-20.20155
-19.97975
-19.7015
-19.380852
-19.03245
-18.662098
-18.2778
-17.88745
-17.489925
-17.082275
-16.6618
-16.22275
-15.7592
-15.265425
-14.734625
-14.159599
-13.5328245
-12.845775
-12.0884
-11.251675
-10.331595
-9.326105
-8.229238
-7.0322046
-5.725362
-4.2981625
-2.7390697
-1.0352631
0.82753193
2.8652325
5.0957127
7.5391827
10.217999
13.158126
16.36935
-20.94995
-20.9306
-20.874374
-20.780275
-20.652275
-20.484674
-20.281776
-20.048424
-19.783499
-19.49015
-19.169226
-18.818775
-18.43835
-18.025625
-17.5776
-17.0916
-16.5643
-15.992424
-15.37275
-14.702126
-13.977775
-13.197874
-12.360901
-11.465474
-10.5062
-9.470079
-8.343738
-7.1175604
-5.782175
-4.3269777
-2.74046
-1.009838
0.8791421
2.942425
5.197955
7.66607
10.36924
13.333699
16.567226
-20.940102
-20.9016
-20.822475
-20.693048
-20.513176
-20.273752
-19.9739
-19.6295
-19.25695
-18.86285
-18.45625
-18.04605
-17.631124
-17.208374
-16.775024
-16.324924
-15.851825
-15.34975
-14.811524
-14.229574
-13.596075
-12.902151
-12.137325
-11.2923
-10.363388
-9.349165
-8.243928
-7.038885
-5.7244053
-4.289963
-2.72404
-1.0138249
0.8549625
2.8982751
5.134065
7.582702
10.266772
13.21265
16.428675
-21.313375
-21.2925
-21.2318
-21.130499
-20.993025
-20.813324
-20.59645
-20.347876
-20.066599
-19.756325
-19.418175
-19.05025
-18.652275
-18.222
-17.756401
-17.25285
-16.708076
-16.118801
-15.481874
-14.7943
-14.053525
-13.257999
-12.406574
-11.498351
-10.528026
-9.481956
-8.346181
-7.111028
-5.7671423
-4.303925
-2.7098825
-0.9722369
0.9232781
2.9926476
5.2539
7.7275505
10.436304
13.406874
16.645475
-21.302776
-21.26125
-21.175726
-21.03595
-20.841948
-20.583952
-20.261301
-19.891827
-19.4938
-19.07465
-18.644526
-18.213375
-17.780075
-17.3414
-16.894474
-16.43275
-15.9496
-15.4387245
-14.892624
-14.303374
-13.6628
-12.961651
-12.188975
-11.33515
-10.396908
-9.373493
-8.259423
-7.0459323
-5.7233973
-4.2813125
-2.708185
-0.99120986
0.88390267
2.9331374
5.1745305
7.6286173
10.3182125
13.270175
16.491276
-21.696825
-21.67435
-21.6089
-21.499973
-21.352499
-21.160076
-20.928452
-20.6638
-20.3653
-20.037174
-19.680824
-19.294449
-18.877975
-18.429176
-17.945051
-17.422998
-16.859776
-16.252151
-15.597026
-14.891549
-14.133424
-13.321401
-12.454724
-11.533
-10.551
-9.494448
-8.348755
-7.1041355
-5.751282
-4.2796025
-2.6776226
-0.93256867
0.96984136
3.0456328
5.312923
7.7924104
10.507059
13.484074
16.72805
-21.685375
-21.640675
-21.548426
-21.397724
-21.188824
-20.911201
-20.564499
-20.168575
-19.743675
-19.2981
-18.843151
-18.3899
-17.937225
-17.48175
-17.0205
-16.5465
-16.052752
-15.5326
-14.978175
-14.381225
-13.733174
-13.024399
-12.24345
-11.380375
-10.432295
-9.399158
-8.275768
-7.0533648
-5.722332
-4.2721853
-2.6914575
-0.96735024
0.9144348
2.9699173
5.21722
7.677055
10.372487
13.33085
16.5573
-22.10135
-22.077175
-22.006725
-21.88975
-21.73175
-21.525902
-21.2787
-20.997126
-20.680426
-20.333426
-19.957901
-19.552074
-19.1161
-18.647774
-18.144073
-17.602499
-17.019798
-16.392801
-15.718501
-14.994174
-14.217724
-13.388275
-12.505525
-11.569575
-10.575274
-9.507646
-8.35147
-7.09686
-5.73455
-4.2539444
-2.64359
-0.8907187
1.0189636
3.1015303
5.3751926
7.86084
10.581704
13.565524
16.815174
-22.088999
-22.040924
-21.9416
-21.779377
-21.554749
-21.25645
-20.88435
-20.460526
-20.007277
-19.5338
-19.052675
-18.576126
-18.103024
-17.629826
-17.153475
-16.666525
-16.161575
-15.63165
-15.068449
-14.463375
-13.80745
-13.090624
-12.300925
-11.428075
-10.469617
-9.426234
-8.293015
-7.061205
-5.7212076
-4.2625575
-2.6738098
-0.94217724
0.94664526
3.0087173
5.262255
7.728155
10.429748
13.39485
16.626925
-22.528101
-22.50215
-22.426424
-22.300976
-22.131876
-21.911827
-21.648201
-21.348774
-21.012877
-20.645975
-20.250225
-19.823875
-19.3673
-18.87835
-18.354025
-17.791851
-17.1886
-16.541176
-15.84665
-15.102448
-14.306675
-13.45885
-12.559151
-11.608175
-10.6009
-9.5215845
-8.354335
-7.0891848
-5.7169
-4.22688
-2.6076872
-0.84656686
1.0707881
3.1605003
5.440888
7.9330373
10.660468
13.651474
16.907074
-22.514824
-22.4632
-22.3564
-22.182
-21.940775
-21.620676
-21.2218
-20.768524
-20.28535
-19.78245
-19.273726
-18.772598
-18.277924
-17.786024
-17.293749
-16.793148
-16.276375
-15.736124
-15.163699
-14.550051
-13.885825
-13.160526
-12.361599
-11.478399
-10.508978
-9.454804
-8.31121
-7.069478
-5.7200227
-4.2524
-2.65519
-0.9156194
0.98062813
3.0496523
5.3097677
7.7820673
10.490147
13.462374
16.7004
-22.978352
-22.950527
-22.869226
-22.734825
-22.554
-22.318975
-22.03805
-21.719774
-21.3636
-20.975727
-20.558626
-20.1106
-19.6323
-19.1216
-18.575523
-17.991625
-17.366701
-16.697725
-15.98185
-15.216675
-14.400526
-13.533325
-12.6157255
-11.648899
-10.627925
-9.536275
-8.357355
-7.0810876
-5.698277
-4.198323
-2.56981
-0.7999888
1.1254637
3.222715
5.5101953
8.009202
10.743553
13.742125
17.004025
-22.9641
-22.908722
-22.794003
-22.606773
-22.34805
-22.004923
-21.577824
-21.093475
-20.578724
-20.0448
-19.50695
-18.979874
-18.462452
-17.950825
-17.441725
-16.926725
-16.397474
-15.846324
-15.264175
-14.6414995
-13.9685
-13.234226
-12.42555
-11.531501
-10.55055
-9.484953
-8.330405
-7.0782056
-5.718772
-4.2416825
-2.635545
-0.88760054
1.0164796
3.0928397
5.359895
7.8389444
10.553867
13.533627
16.77795
-23.453375
-23.423525
-23.33635
-23.192524
-22.999325
-22.748524
-22.449352
-22.111176
-21.7336
-21.3236
-20.884
-20.413124
-19.911926
-19.3783
-18.80925
-18.202425
-17.554626
-16.862875
-16.124474
-15.337174
-14.499525
-13.611876
-12.675375
-11.69185
-10.65645
-9.55178
-8.360543
-7.0725446
-5.678627
-4.1681924
-2.5298474
-0.75084704
1.1831479
3.2883525
5.5833125
8.089555
10.8312
13.83775
17.106325
-23.4381
-23.37875
-23.25565
-23.0549
-22.777752
-22.410349
-21.953453
-21.436327
-20.888273
-20.3216
-19.753
-19.198574
-18.657175
-18.124725
-17.59785
-17.067625
-16.525225
-15.9626
-15.370176
-14.737949
-14.055701
-13.3119755
-12.493025
-11.587524
-10.5944
-9.516754
-8.3506565
-7.087413
-5.717455
-4.2303777
-2.61482
-0.8580399
1.0543027
3.1384
5.4127774
7.898953
10.621096
13.608776
16.859724
-23.954502
-23.922552
-23.829174
-23.675402
-23.469149
-23.2017
-22.88325
-22.524075
-22.12395
-21.6906
-21.22725
-20.732275
-20.206902
-19.6491
-19.055824
-18.424799
-17.752874
-17.037125
-16.274975
-15.464325
-14.603975
-13.694751
-12.738325
-11.73715
-10.686525
-9.56814
-8.363908
-7.0635347
-5.6579
-4.136408
-2.4876876
-0.69900227
1.2440052
3.3576
5.660453
8.17433
10.923682
13.938649
17.214226
-23.938148
-23.874626
-23.742702
-23.527674
-23.231075
-22.838074
-22.349724
-21.798
-21.214825
-20.613625
-20.012575
-19.429276
-18.862576
-18.308151
-17.76255
-17.216274
-16.66
-16.0853
-15.482025
-14.839701
-14.1476755
-13.394001
-12.564251
-11.6466255
-10.640626
-9.550292
-8.372023
-7.097127
-5.7160654
-4.21845
-2.5929549
-0.8268539
1.0942061
3.1864653
5.4685674
7.9622602
10.69202
13.688076
16.946001
-24.483175
-24.449026
-24.349125
-24.184849
-23.964825
-23.6798
-23.341
-22.9597
-22.535799
-22.0778
-21.589375
-21.06895
-20.518076
-19.93475
-19.315926
-18.659399
-17.962023
-17.220974
-16.433748
-15.598451
-14.714175
-13.782175
-12.804749
-11.784976
-10.71825
-9.585392
-8.367457
-7.05403
-5.636035
-4.102875
-2.4432101
-0.64430827
1.3082068
3.430655
5.7418356
8.263765
11.021251
14.045098
17.328074
-24.4657
-24.397802
-24.256577
-24.026499
-23.709349
-23.289299
-22.767775
-22.179548
-21.559326
-20.921701
-20.286425
-19.672651
-19.07925
-18.501673
-17.936323
-17.373123
-16.802225
-16.214748
-15.6
-14.94705
-14.244724
-13.480524
-12.639349
-11.70895
-10.689401
-9.585681
-8.394562
-7.107377
-5.714595
-4.205865
-2.56989
-0.79395396
1.1363035
3.237175
5.5274277
8.029048
10.766838
13.771727
17.037025
-25.04095
-25.004452
-24.897673
-24.7223
-24.487751
-24.1842
-23.823925
-23.419275
-22.9703
-22.486326
-21.97145
-21.424173
-20.846401
-20.236124
-19.590324
-18.9069
-18.182676
-17.414898
-16.601225
-15.739925
-14.830424
-13.874426
-12.8748255
-11.835424
-10.7517
-9.603575
-8.3712
-7.044
-5.6129656
-4.0674977
-2.3962827
-0.58660203
1.3759406
3.50773
5.8276954
8.35812
11.124163
14.157373
17.448175
-25.022274
-24.949726
-24.798725
-24.552773
-24.213926
-23.765326
-23.2088
-22.582125
-21.922827
-21.246725
-20.57535
-19.92945
-19.30785
-18.705824
-18.11965
-17.538599
-16.952274
-16.3513
-15.72445
-15.060301
-14.347126
-13.571825
-12.7185755
-11.774701
-10.74085
-9.623013
-8.418343
-7.11819
-5.7130446
-4.192588
-2.545555
-0.7592435
1.1807166
3.2906752
5.589525
8.09951
10.8457775
13.859975
17.133076
-25.629398
-25.590424
-25.476398
-25.289299
-25.039425
-24.716324
-24.3334
-23.904125
-23.428677
-22.917274
-22.374502
-21.798925
-21.192774
-20.5541
-19.87985
-19.168
-18.415451
-17.6195
-16.777925
-15.8892
-14.953074
-13.971776
-12.94875
-11.888599
-10.786974
-9.622755
-8.375151
-7.03342
-5.588625
-4.0301723
-2.346775
-0.5257233
1.4473993
3.5890422
5.9182773
8.457665
11.232736
14.275825
17.574877
-25.609474
-25.532001
-25.370651
-25.107925
-24.7462
-24.267523
-23.6741
-23.006851
-22.3063
-21.589626
-20.880177
-20.200375
-19.549026
-18.9212
-18.313051
-17.713175
-17.110575
-16.495377
-15.855775
-15.1798
-14.455175
-13.668175
-12.8022
-11.844101
-10.795126
-9.662382
-8.443433
-7.129597
-5.7114124
-4.1785803
-2.51988
-0.7226255
1.227572
3.3471174
5.6550374
8.173848
10.929071
13.953099
17.234402
-26.250227
-26.20865
-26.086948
-25.887526
-25.621473
-25.277725
-24.870926
-24.415676
-23.912273
-23.371925
-22.799726
-22.194302
-21.5582
-20.88955
-20.185299
-19.443476
-18.661026
-17.83535
-16.96435
-16.0467
-15.082475
-14.074451
-13.026751
-11.94475
-10.82425
-9.643024
-8.379317
-7.0222573
-5.5629473
-3.990795
-2.294545
-0.46149725
1.5227878
3.6748276
6.0138426
8.562685
11.347292
14.400825
17.708576
-26.22895
-26.1463
-25.974026
-25.693596
-25.307775
-24.797377
-24.164999
-23.4549
-22.710823
-21.951374
-21.201752
-20.486176
-19.803474
-19.148472
-18.517126
-17.89735
-17.27755
-16.64735
-15.994326
-15.305874
-14.569151
-13.769799
-12.890425
-11.917326
-10.852401
-9.703933
-8.4699
-7.1416326
-5.7096906
-4.163805
-2.492795
-0.6839925
1.2770051
3.4066648
5.7241554
8.252273
11.016949
14.05135
17.341274
-26.905197
-26.860874
-26.731049
-26.518625
-26.235523
-25.869999
-25.438025
-24.955349
-24.422478
-23.851599
-23.248348
-22.61145
-21.943748
-21.243448
-20.50755
-19.734125
-18.920126
-18.063076
-17.161026
-16.212849
-15.218975
-14.182751
-13.109026
-12.003975
-10.86355
-9.6644
-8.383713
-7.01048
-5.535857
-3.949255
-2.239445
-0.3937385
1.602324
3.7653327
6.1146626
8.673491
11.468179
14.532724
17.849625
-26.882475
-26.794376
-26.610624
-26.31155
-25.900274
-25.356401
-24.6829
-23.927574
-23.1376
-22.333027
-21.541023
-20.787699
-20.0719
-19.388199
-18.732399
-18.09165
-17.453701
-16.807676
-16.1405
-15.4389
-14.689401
-13.876999
-12.98345
-11.994526
-10.912825
-9.747787
-8.49782
-7.1543274
-5.707873
-4.1482177
-2.46422
-0.64323354
1.3291566
3.4694874
5.797075
8.335012
11.109665
14.155
17.45405
-27.596176
-27.54895
-27.410574
-27.184425
-26.883348
-26.49485
-26.036303
-25.5247
-24.96075
-24.357674
-23.72165
-23.051525
-22.3505
-21.616825
-20.847525
-20.04075
-19.193474
-18.30335
-17.368525
-16.388124
-15.362976
-14.297026
-13.195826
-12.06645
-10.905025
-9.68695
-8.38835
-6.9980555
-5.5072775
-3.90543
-2.181315
-0.32225326
1.6862342
3.8608122
6.221025
8.790368
11.595675
14.671849
17.998425
-27.571976
-27.478127
-27.282223
-26.963476
-26.525349
-25.946152
-25.2293
-24.426275
-23.587849
-22.735647
-21.898949
-21.105827
-20.355125
-19.641125
-18.9595
-18.29665
-17.639576
-16.97685
-16.294725
-15.579224
-14.816275
-13.990125
-13.081601
-12.076
-10.9766
-9.794052
-8.52728
-7.1677227
-5.7059546
-4.13177
-2.4340723
-0.60023427
1.3841783
3.535765
5.8740025
8.422302
11.207465
14.264325
17.573027
-28.325174
-28.274876
-28.1275
-27.886877
-27.566824
-27.154102
-26.667475
-26.12535
-25.528625
-24.891575
-24.220976
-23.515776
-22.779573
-22.010698
-21.206175
-20.364223
-19.48185
-18.556824
-17.58745
-16.57305
-15.5149
-14.417575
-13.2874
-12.1324
-10.9488
-9.710745
-8.393246
-6.984947
-5.477125
-3.8591924
-2.119985
-0.2468352
1.7747599
3.961545
6.33324
8.913671
11.730175
14.8186
18.155376
-28.299398
-28.199451
-27.990723
-27.651226
-27.184776
-26.568298
-25.805725
-24.9524
-24.062878
-23.160423
-22.276548
-21.441423
-20.653925
-19.907999
-19.199125
-18.512924
-17.835651
-17.1553
-16.457401
-15.727249
-14.9501
-14.10945
-13.185176
-12.161975
-11.043875
-9.842853
-8.55836
-7.1818547
-5.70393
-4.1144176
-2.40227
-0.5548715
1.4422259
3.6056871
5.95516
8.514393
11.310631
14.379675
17.69855
-29.094276
-29.040726
-28.88385
-28.62795
-28.28785
-27.849577
-27.33335
-26.759026
-26.127699
-25.454824
-24.747774
-24.005548
-23.23225
-22.426249
-21.584549
-20.705475
-19.786074
-18.824226
-17.8184
-16.768175
-15.6751995
-14.54475
-13.384
-12.201924
-10.994925
-9.735827
-8.398408
-6.971117
-5.4453125
-3.8104098
-2.05528
-0.16726899
1.8681536
4.067818
6.4516273
9.043788
11.8721
14.973425
18.320976
-29.066826
-28.960451
-28.738228
-28.376825
-27.880476
-27.224676
-26.413849
-25.507475
-24.564049
-23.608576
-22.674925
-21.795473
-20.9691
-20.1895
-19.451923
-18.7411
-18.042526
-17.343576
-16.629025
-15.883425
-15.091275
-14.235325
-13.29445
-12.252675
-11.114826
-9.89432
-8.59115
-7.196765
-5.701795
-4.0961127
-2.3687177
-0.5070135
1.5034664
3.6794572
6.0407825
8.611537
11.419473
14.501374
17.830975
-29.905651
-29.848701
-29.681797
-29.409777
-29.04855
-28.5833
-28.035875
-27.427603
-26.759748
-26.049078
-25.303574
-24.5223
-23.70985
-22.864676
-21.98375
-21.0655
-20.107052
-19.10635
-18.062025
-16.974
-15.844299
-14.6789255
-13.485924
-12.275274
-11.0436
-9.762296
-8.403852
-6.956527
-5.411755
-3.7589474
-1.9870176
-0.08332752
1.9666852
4.1799355
6.5765247
9.181047
12.021825
15.136774
18.4957
-29.876476
-29.76335
-29.526852
-29.142324
-28.614452
-27.91715
-27.055426
-26.0931
-25.0928
-24.0814
-23.095226
-22.169027
-21.301651
-20.486475
-19.7186
-18.9818
-18.260775
-17.542225
-16.8101
-16.048174
-15.240225
-14.36815
-13.409726
-12.348351
-11.189676
-9.948618
-8.625745
-7.212495
-5.6995425
-4.0768
-2.3333175
-0.45652178
1.5680733
3.7572825
6.131115
8.714035
11.534301
14.629749
17.970676
-30.76165
-30.701101
-30.523626
-30.234602
-29.851097
-29.357399
-28.77705
-28.13295
-27.426575
-26.676
-25.889923
-25.067474
-24.213726
-23.327227
-22.404924
-21.44535
-20.445675
-19.403975
-18.319077
-17.19115
-16.0227
-14.820499
-13.593473
-12.352675
-11.0949745
-9.790245
-8.4096
-6.9411373
-5.37635
-3.7046552
-1.915003
0.0052297413
2.0706353
4.2982173
6.7082896
9.325837
12.179774
15.309124
18.68005
-30.730652
-30.610401
-30.358826
-29.9499
-29.388777
-28.647724
-27.732302
-26.7109
-25.6506
-24.580225
-23.53865
-22.563128
-21.652525
-20.799824
-19.99995
-19.235725
-18.490997
-17.751774
-17.001125
-16.222
-15.397373
-14.508276
-13.531324
-12.449249
-11.268651
-10.005929
-8.662239
-7.2290897
-5.6971655
-4.056422
-2.2959702
-0.4032533
1.6362343
3.8393898
6.226417
8.822183
11.655449
14.765175
18.11805
-31.664728
-31.600376
-31.41175
-31.104776
-30.697748
-30.17405
-29.558949
-28.877026
-28.130024
-27.337376
-26.508501
-25.6426
-24.7453
-23.815226
-22.84925
-21.846075
-20.802923
-19.717976
-18.590275
-17.420275
-16.210926
-14.969849
-13.706949
-12.43435
-11.149176
-9.819728
-8.415662
-6.924897
-5.338995
-3.6473749
-1.8390265
0.09865855
2.1803
4.423005
6.8473043
9.478607
12.346401
15.490925
18.874525
-31.631775
-31.504
-31.236576
-30.801924
-30.205702
-29.418499
-28.4464
-27.362675
-26.2391
-25.106478
-24.00645
-22.978876
-22.022648
-21.1304
-20.296776
-19.50365
-18.733927
-17.972849
-17.20265
-16.405375
-15.563173
-14.656126
-13.659649
-12.55575
-11.351975
-10.066378
-8.700743
-7.2465973
-5.69466
-4.0349274
-2.2565675
-0.34705326
1.7081441
3.9260125
6.32696
8.936277
11.783299
14.908099
18.27355
-32.617477
-32.549126
-32.34873
-32.0228
-31.590975
-31.035627
-30.383875
-29.662052
-28.872173
-28.035126
-27.161076
-26.24935
-25.3061
-24.330027
-23.317999
-22.268848
-21.17985
-20.049274
-18.876375
-17.661976
-16.4095
-15.1274
-13.826625
-12.520499
-11.20635
-9.850819
-8.422058
-6.9077644
-5.29959
-3.5869474
-1.7588723
0.19722527
2.2959974
4.554658
6.993964
9.63979
12.522225
15.68275
19.079674
-32.582478
-32.44675
-32.1626
-31.700825
-31.067575
-30.231651
-29.199774
-28.050327
-26.859951
-25.661627
-24.499928
-23.417477
-22.413124
-21.479126
-20.609924
-19.7863
-18.9902
-18.2061
-17.415249
-16.598825
-15.7381
-14.812099
-13.795024
-12.668124
-11.439899
-10.130155
-8.741363
-7.265065
-5.6920147
-4.0122504
-2.2149973
-0.28776202
1.784008
4.0173974
6.43303
9.056647
11.918175
15.058875
18.437601
-33.622627
-33.550076
-33.33725
-32.991352
-32.533348
-31.944601
-31.2542
-30.490297
-29.655201
-28.7713
-27.849577
-26.8895
-25.897776
-24.873152
-23.812523
-22.714876
-21.577475
-20.39875
-19.1782
-17.91695
-16.619
-15.293651
-13.952901
-12.6114
-11.266676
-9.883612
-8.4288025
-6.8896923
-5.2580175
-3.523195
-1.6743089
0.3012135
2.4180598
4.6935525
7.1486897
9.80983
12.707726
15.885149
19.296125
-33.585453
-33.441353
-33.139523
-32.649124
-31.976826
-31.0895
-29.994572
-28.775776
-27.514925
-26.247324
-25.020576
-23.880224
-22.825125
-21.847076
-20.940325
-20.084501
-19.260576
-18.452198
-17.639574
-16.80295
-15.922649
-14.97665
-13.937825
-12.786624
-11.532651
-10.197457
-8.784215
-7.2845497
-5.6892223
-3.9883227
-2.1711426
-0.22521201
1.8640456
4.11381
6.5449347
9.183608
12.060426
15.217924
18.61065
-34.683075
-34.606075
-34.380146
-34.013172
-33.52755
-32.90355
-32.172348
-31.36405
-30.48125
-29.547949
-28.575953
-27.56485
-26.521976
-25.44615
-24.334251
-23.185425
-21.996975
-20.76745
-19.496626
-18.185951
-16.84
-15.469026
-14.086124
-12.707299
-11.3303
-9.918195
-8.435923
-6.870627
-5.214155
-3.4559326
-1.5850937
0.4109213
2.546835
4.8400846
7.311928
9.989216
12.9034
16.09865
19.524475
-34.643623
-34.490673
-34.170197
-33.6496
-32.936104
-31.994553
-30.833075
-29.541098
-28.205952
-26.865274
-25.569899
-24.368448
-23.259775
-22.23525
-21.288876
-20.399126
-19.54585
-18.711824
-17.876251
-17.0183
-16.117325
-15.1502495
-14.0885
-12.91165
-11.630475
-10.268445
-8.829428
-7.30511
-5.686282
-3.963085
-2.1248798
-0.15922326
1.9484844
4.215525
6.6629977
9.317554
12.210501
15.385725
18.793224
-35.80185
-35.720146
-35.480396
-35.091198
-34.57645
-33.915253
-33.141003
-32.28585
-31.352724
-30.367298
-29.34225
-28.27735
-27.180502
-26.05065
-24.884676
-23.68185
-22.43955
-21.15645
-19.832575
-18.469751
-17.07315
-15.654026
-14.226648
-12.80845
-11.397425
-9.954693
-8.443432
-6.85051
-5.167877
-3.38497
-1.4909707
0.52666426
2.6826952
4.9946775
7.4841423
10.178463
13.109825
16.323875
19.765377
-35.76
-35.597725
-35.257576
-34.7051
-33.948124
-32.949375
-31.717726
-30.348549
-28.934975
-27.517174
-26.149399
-24.883501
-23.7183
-22.64475
-21.656574
-20.731026
-19.846775
-18.9857
-18.125925
-17.245476
-16.3227
-15.333375
-14.24745
-13.0436
-11.733701
-10.343324
-8.877125
-7.3267975
-5.683177
-3.9364576
-2.07607
-0.08960247
2.0375676
4.322835
6.7875524
9.458894
12.368851
15.562752
18.98585
-36.982124
-36.895473
-36.64112
-36.2285
-35.683025
-34.982574
-34.162926
-33.258377
-32.27215
-31.231724
-30.150724
-29.029049
-27.875277
-26.688423